Compound,Boiling Point at Normal Pressure(K),Heat of Vaporization(J/mol)
Acetone,329,31300
Aluminium,2792,294000
Ammonia,240,23350
Butane,273,21000
Diethyl ether,307.8,26170
Ethanol,352,38600
Hydrogen,20.271,899.2
Iron,3134,340000
Isopropyl alcohol,356,44000
Methane,112,8170
Methanol,338,35200
Propane,231,15700
Phosphine,185,14600
Water,373.15,40660